{
  "hydrogen": {
    "symbol": "H",
    "atomicNumber": "1",
    "atomicWeight": "1.008",
    "type": "nonmetal",
    "boilingPoint": 20.271,
    "meltingPoint": 14.025,
    "row": 2,
    "column": 2,
    "wiki": "https://en.wikipedia.org/wiki/Hydrogen",
    "group": 1,
    "period": 1
  },
  "helium": {
    "symbol": "He",
    "atomicNumber": "2",
    "atomicWeight": "4.003",
    "type": "noble-gas",
    "boilingPoint": 4.222,
    "meltingPoint": 0.95,
    "row": 2,
    "column": 19,
    "wiki": "https://en.wikipedia.org/wiki/Helium",
    "group": 18,
    "period": 1
  },
  "lithium": {
    "symbol": "Li",
    "atomicNumber": "3",
    "atomicWeight": "6.940",
    "type": "alkali",
    "boilingPoint": 1603,
    "meltingPoint": 453.7,
    "row": 3,
    "column": 2,
    "wiki": "https://en.wikipedia.org/wiki/Lithium",
    "group": 1,
    "period": 2
  },
  "beryllium": {
    "symbol": "Be",
    "atomicNumber": "4",
    "atomicWeight": "9.012",
    "type": "alkaline",
    "boilingPoint": 2742,
    "meltingPoint": 1560,
    "row": 3,
    "column": 3,
    "wiki": "https://en.wikipedia.org/wiki/Beryllium",
    "group": 2,
    "period": 2
  },
  "boron": {
    "symbol": "B",
    "atomicNumber": "5",
    "atomicWeight": "10.810",
    "type": "metalloid",
    "boilingPoint": 4200,
    "meltingPoint": 2573,
    "row": 3,
    "column": 14,
    "wiki": "https://en.wikipedia.org/wiki/Boron",
    "group": 13,
    "period": 2
  },
  "carbon": {
    "symbol": "C",
    "atomicNumber": "6",
    "atomicWeight": "12.011",
    "type": "nonmetal",
    "boilingPoint": 4300,
    "meltingPoint": 3773,
    "row": 3,
    "column": 15,
    "wiki": "https://en.wikipedia.org/wiki/Carbon",
    "group": 14,
    "period": 2
  },
  "nitrogen": {
    "symbol": "N",
    "atomicNumber": "7",
    "atomicWeight": "14.007",
    "type": "nonmetal",
    "boilingPoint": 77.355,
    "meltingPoint": 63.14,
    "row": 3,
    "column": 16,
    "wiki": "https://en.wikipedia.org/wiki/Nitrogen",
    "group": 15,
    "period": 2
  },
  "oxygen": {
    "symbol": "O",
    "atomicNumber": "8",
    "atomicWeight": "15.999",
    "type": "nonmetal",
    "boilingPoint": 90.188,
    "meltingPoint": 50.35,
    "row": 3,
    "column": 17,
    "wiki": "https://en.wikipedia.org/wiki/Oxygen",
    "group": 16,
    "period": 2
  },
  "fluorine": {
    "symbol": "F",
    "atomicNumber": "9",
    "atomicWeight": "18.998",
    "type": "nonmetal",
    "boilingPoint": 85.04,
    "meltingPoint": 53.48,
    "row": 3,
    "column": 18,
    "wiki": "https://en.wikipedia.org/wiki/Fluorine",
    "group": 17,
    "period": 2
  },
  "neon": {
    "symbol": "Ne",
    "atomicNumber": "10",
    "atomicWeight": "20.180",
    "type": "noble-gas",
    "boilingPoint": 27.104,
    "meltingPoint": 24.553,
    "row": 3,
    "column": 19,
    "wiki": "https://en.wikipedia.org/wiki/Neon",
    "group": 18,
    "period": 2
  },
  "sodium": {
    "symbol": "Na",
    "atomicNumber": "11",
    "atomicWeight": "22.990",
    "type": "alkali",
    "boilingPoint": 1156.09,
    "meltingPoint": 371,
    "row": 4,
    "column": 2,
    "wiki": "https://en.wikipedia.org/wiki/Sodium",
    "group": 1,
    "period": 3
  },
  "magnesium": {
    "symbol": "Mg",
    "atomicNumber": "12",
    "atomicWeight": "24.305",
    "type": "alkaline",
    "boilingPoint": 1363,
    "meltingPoint": 922,
    "row": 4,
    "column": 3,
    "wiki": "https://en.wikipedia.org/wiki/Magnesium",
    "group": 2,
    "period": 3
  },
  "aluminum": {
    "symbol": "Al",
    "atomicNumber": "13",
    "atomicWeight": "26.982",
    "type": "post-transition-metal",
    "boilingPoint": 2743,
    "meltingPoint": 933.25,
    "row": 4,
    "column": 14,
    "wiki": "https://en.wikipedia.org/wiki/Aluminum",
    "group": 13,
    "period": 3
  },
  "silicon": {
    "symbol": "Si",
    "atomicNumber": "14",
    "atomicWeight": "28.085",
    "type": "metalloid",
    "boilingPoint": 3538,
    "meltingPoint": 1683,
    "row": 4,
    "column": 15,
    "wiki": "https://en.wikipedia.org/wiki/Silicon",
    "group": 14,
    "period": 3
  },
  "phosphorus": {
    "symbol": "P",
    "atomicNumber": "15",
    "atomicWeight": "30.974",
    "type": "nonmetal",
    "boilingPoint": 550,
    "meltingPoint": 317.3,
    "row": 4,
    "column": 16,
    "wiki": "https://en.wikipedia.org/wiki/Phosphorous",
    "group": 15,
    "period": 3
  },
  "sulfur": {
    "symbol": "S",
    "atomicNumber": "16",
    "atomicWeight": "32.060",
    "type": "nonmetal",
    "boilingPoint": 717.87,
    "meltingPoint": 388.36,
    "row": 4,
    "column": 17,
    "wiki": "https://en.wikipedia.org/wiki/Sulfur",
    "group": 16,
    "period": 3
  },
  "chlorine": {
    "symbol": "Cl",
    "atomicNumber": "17",
    "atomicWeight": "35.450",
    "type": "nonmetal",
    "boilingPoint": 239.11,
    "meltingPoint": 172.16,
    "row": 4,
    "column": 18,
    "wiki": "https://en.wikipedia.org/wiki/Chlorine",
    "group": 17,
    "period": 3
  },
  "argon": {
    "symbol": "Ar",
    "atomicNumber": "18",
    "atomicWeight": "39.948",
    "type": "noble-gas",
    "boilingPoint": 87.302,
    "meltingPoint": 83.81,
    "row": 4,
    "column": 19,
    "wiki": "https://en.wikipedia.org/wiki/Argon",
    "group": 18,
    "period": 3
  },
  "potassium": {
    "symbol": "K",
    "atomicNumber": "19",
    "atomicWeight": "39.098",
    "type": "alkali",
    "boilingPoint": 1032,
    "meltingPoint": 336.35,
    "row": 5,
    "column": 2,
    "wiki": "https://en.wikipedia.org/wiki/Potassium",
    "group": 1,
    "period": 4
  },
  "calcium": {
    "symbol": "Ca",
    "atomicNumber": "20",
    "atomicWeight": "40.078",
    "type": "alkaline",
    "boilingPoint": 1757,
    "meltingPoint": 1112,
    "row": 5,
    "column": 3,
    "wiki": "https://en.wikipedia.org/wiki/Calcium",
    "group": 2,
    "period": 4
  },
  "scandium": {
    "symbol": "Sc",
    "atomicNumber": "21",
    "atomicWeight": "44.956",
    "type": "transition-metal",
    "boilingPoint": 3109,
    "meltingPoint": 1812,
    "row": 5,
    "column": 4,
    "wiki": "https://en.wikipedia.org/wiki/Scandium",
    "group": 3,
    "period": 4
  },
  "titanium": {
    "symbol": "Ti",
    "atomicNumber": "22",
    "atomicWeight": "47.867",
    "type": "transition-metal",
    "boilingPoint": 3560,
    "meltingPoint": 1933,
    "row": 5,
    "column": 5,
    "wiki": "https://en.wikipedia.org/wiki/Titanium",
    "group": 4,
    "period": 4
  },
  "vanadium": {
    "symbol": "V",
    "atomicNumber": "23",
    "atomicWeight": "50.942",
    "type": "transition-metal",
    "boilingPoint": 3680,
    "meltingPoint": 2175,
    "row": 5,
    "column": 6,
    "wiki": "https://en.wikipedia.org/wiki/Vanadium",
    "group": 5,
    "period": 4
  },
  "chromium": {
    "symbol": "Cr",
    "atomicNumber": "24",
    "atomicWeight": "51.996",
    "type": "transition-metal",
    "boilingPoint": 2755,
    "meltingPoint": 2130,
    "row": 5,
    "column": 7,
    "wiki": "https://en.wikipedia.org/wiki/Chromium",
    "group": 6,
    "period": 4
  },
  "manganese": {
    "symbol": "Mn",
    "atomicNumber": "25",
    "atomicWeight": "54.938",
    "type": "transition-metal",
    "boilingPoint": 2334,
    "meltingPoint": 1517,
    "row": 5,
    "column": 8,
    "wiki": "https://en.wikipedia.org/wiki/Manganese",
    "group": 7,
    "period": 4
  },
  "iron": {
    "symbol": "Fe",
    "atomicNumber": "26",
    "atomicWeight": "55.845",
    "type": "transition-metal",
    "boilingPoint": 3134,
    "meltingPoint": 1808,
    "row": 5,
    "column": 9,
    "wiki": "https://en.wikipedia.org/wiki/Iron",
    "group": 8,
    "period": 4
  },
  "cobalt": {
    "symbol": "Co",
    "atomicNumber": "27",
    "atomicWeight": "58.933",
    "type": "transition-metal",
    "boilingPoint": 3200,
    "meltingPoint": 1768,
    "row": 5,
    "column": 10,
    "wiki": "https://en.wikipedia.org/wiki/Cobalt",
    "group": 9,
    "period": 4
  },
  "nickel": {
    "symbol": "Ni",
    "atomicNumber": "28",
    "atomicWeight": "58.693",
    "type": "transition-metal",
    "boilingPoint": 3003,
    "meltingPoint": 1728,
    "row": 5,
    "column": 11,
    "wiki": "https://en.wikipedia.org/wiki/Nickel",
    "group": 10,
    "period": 4
  },
  "copper": {
    "symbol": "Cu",
    "atomicNumber": "29",
    "atomicWeight": "63.546",
    "type": "transition-metal",
    "boilingPoint": 2835,
    "meltingPoint": 1357.6,
    "row": 5,
    "column": 12,
    "wiki": "https://en.wikipedia.org/wiki/Copper",
    "group": 11,
    "period": 4
  },
  "zinc": {
    "symbol": "Zn",
    "atomicNumber": "30",
    "atomicWeight": "65.380",
    "type": "transition-metal",
    "boilingPoint": 1180,
    "meltingPoint": 692.73,
    "row": 5,
    "column": 13,
    "wiki": "https://en.wikipedia.org/wiki/Zinc",
    "group": 12,
    "period": 4
  },
  "gallium": {
    "symbol": "Ga",
    "atomicNumber": "31",
    "atomicWeight": "69.723",
    "type": "post-transition-metal",
    "boilingPoint": 2673,
    "meltingPoint": 302.9,
    "row": 5,
    "column": 14,
    "wiki": "https://en.wikipedia.org/wiki/Gallium",
    "group": 13,
    "period": 4
  },
  "germanium": {
    "symbol": "Ge",
    "atomicNumber": "32",
    "atomicWeight": "72.630",
    "type": "metalloid",
    "boilingPoint": 3106,
    "meltingPoint": 1210.4,
    "row": 5,
    "column": 15,
    "wiki": "https://en.wikipedia.org/wiki/Germanium",
    "group": 14,
    "period": 4
  },
  "arsenic": {
    "symbol": "As",
    "atomicNumber": "33",
    "atomicWeight": "74.922",
    "type": "metalloid",
    "boilingPoint": 887,
    "meltingPoint": 1081,
    "row": 5,
    "column": 16,
    "wiki": "https://en.wikipedia.org/wiki/Arsenic",
    "group": 15,
    "period": 4
  },
  "selenium": {
    "symbol": "Se",
    "atomicNumber": "34",
    "atomicWeight": "78.971",
    "type": "nonmetal",
    "boilingPoint": 958,
    "meltingPoint": 494,
    "row": 5,
    "column": 17,
    "wiki": "https://en.wikipedia.org/wiki/Selenium",
    "group": 16,
    "period": 4
  },
  "bromine": {
    "symbol": "Br",
    "atomicNumber": "35",
    "atomicWeight": "79.904",
    "type": "nonmetal",
    "boilingPoint": 332,
    "meltingPoint": 265.9,
    "row": 5,
    "column": 18,
    "wiki": "https://en.wikipedia.org/wiki/Bromine",
    "group": 17,
    "period": 4
  },
  "krypton": {
    "symbol": "Kr",
    "atomicNumber": "36",
    "atomicWeight": "83.798",
    "type": "noble-gas",
    "boilingPoint": 119.735,
    "meltingPoint": 115.78,
    "row": 5,
    "column": 19,
    "wiki": "https://en.wikipedia.org/wiki/Krypton",
    "group": 18,
    "period": 4
  },
  "rubidium": {
    "symbol": "Rb",
    "atomicNumber": "37",
    "atomicWeight": "85.468",
    "type": "alkali",
    "boilingPoint": 961,
    "meltingPoint": 312.64,
    "row": 6,
    "column": 2,
    "wiki": "https://en.wikipedia.org/wiki/Rubidium",
    "group": 1,
    "period": 5
  },
  "strontium": {
    "symbol": "Sr",
    "atomicNumber": "38",
    "atomicWeight": "87.620",
    "type": "alkaline",
    "boilingPoint": 1650,
    "meltingPoint": 1042,
    "row": 6,
    "column": 3,
    "wiki": "https://en.wikipedia.org/wiki/Strontium",
    "group": 2,
    "period": 5
  },
  "yttrium": {
    "symbol": "Y",
    "atomicNumber": "39",
    "atomicWeight": "88.906",
    "type": "transition-metal",
    "boilingPoint": 3203,
    "meltingPoint": 1799,
    "row": 6,
    "column": 4,
    "wiki": "https://en.wikipedia.org/wiki/Yttrium",
    "group": 3,
    "period": 5
  },
  "zirconium": {
    "symbol": "Zr",
    "atomicNumber": "40",
    "atomicWeight": "91.224",
    "type": "transition-metal",
    "boilingPoint": 4650,
    "meltingPoint": 2125,
    "row": 6,
    "column": 5,
    "wiki": "https://en.wikipedia.org/wiki/Zirconium",
    "group": 4,
    "period": 5
  },
  "niobium": {
    "symbol": "Nb",
    "atomicNumber": "41",
    "atomicWeight": "92.906",
    "type": "transition-metal",
    "boilingPoint": 5017,
    "meltingPoint": 2741,
    "row": 6,
    "column": 6,
    "wiki": "https://en.wikipedia.org/wiki/Niobium",
    "group": 5,
    "period": 5
  },
  "molybdenur": {
    "symbol": "Mo",
    "atomicNumber": "42",
    "atomicWeight": "95.950",
    "type": "transition-metal",
    "boilingPoint": 4912,
    "meltingPoint": 2890,
    "row": 6,
    "column": 7,
    "wiki": "https://en.wikipedia.org/wiki/Molybdenur",
    "group": 6,
    "period": 5
  },
  "technetium": {
    "symbol": "Tc",
    "atomicNumber": "43",
    "atomicWeight": "[98]",
    "type": "transition-metal",
    "boilingPoint": 4538,
    "meltingPoint": 2473,
    "row": 6,
    "column": 8,
    "wiki": "https://en.wikipedia.org/wiki/Technetium",
    "group": 7,
    "period": 5
  },
  "ruthenium": {
    "symbol": "Ru",
    "atomicNumber": "44",
    "atomicWeight": "101.070",
    "type": "transition-metal",
    "boilingPoint": 4423,
    "meltingPoint": 2523,
    "row": 6,
    "column": 9,
    "wiki": "https://en.wikipedia.org/wiki/Ruthenium",
    "group": 8,
    "period": 5
  },
  "rhodium": {
    "symbol": "Rh",
    "atomicNumber": "45",
    "atomicWeight": "102.910",
    "type": "transition-metal",
    "boilingPoint": 3968,
    "meltingPoint": 2239,
    "row": 6,
    "column": 10,
    "wiki": "https://en.wikipedia.org/wiki/Rhodium",
    "group": 9,
    "period": 5
  },
  "palladium": {
    "symbol": "Pd",
    "atomicNumber": "46",
    "atomicWeight": "106.420",
    "type": "transition-metal",
    "boilingPoint": 3236,
    "meltingPoint": 1825,
    "row": 6,
    "column": 11,
    "wiki": "https://en.wikipedia.org/wiki/Palladium",
    "group": 10,
    "period": 5
  },
  "silver": {
    "symbol": "Ag",
    "atomicNumber": "47",
    "atomicWeight": "107.870",
    "type": "transition-metal",
    "boilingPoint": 2483,
    "meltingPoint": 1234,
    "row": 6,
    "column": 12,
    "wiki": "https://en.wikipedia.org/wiki/Silver",
    "group": 11,
    "period": 5
  },
  "cadmium": {
    "symbol": "Cd",
    "atomicNumber": "48",
    "atomicWeight": "112.410",
    "type": "transition-metal",
    "boilingPoint": 1040,
    "meltingPoint": 594.18,
    "row": 6,
    "column": 13,
    "wiki": "https://en.wikipedia.org/wiki/Cadmium",
    "group": 12,
    "period": 5
  },
  "indium": {
    "symbol": "In",
    "atomicNumber": "49",
    "atomicWeight": "114.820",
    "type": "post-transition-metal",
    "boilingPoint": 2345,
    "meltingPoint": 429.76,
    "row": 6,
    "column": 14,
    "wiki": "https://en.wikipedia.org/wiki/Indium",
    "group": 13,
    "period": 5
  },
  "tin": {
    "symbol": "Sn",
    "atomicNumber": "50",
    "atomicWeight": "118.710",
    "type": "post-transition-metal",
    "boilingPoint": 2875,
    "meltingPoint": 505.06,
    "row": 6,
    "column": 15,
    "wiki": "https://en.wikipedia.org/wiki/Tin",
    "group": 14,
    "period": 5
  },
  "antimony": {
    "symbol": "Sb",
    "atomicNumber": "51",
    "atomicWeight": "121.760",
    "type": "metalloid",
    "boilingPoint": 1908,
    "meltingPoint": 903.9,
    "row": 6,
    "column": 16,
    "wiki": "https://en.wikipedia.org/wiki/Antimony",
    "group": 15,
    "period": 5
  },
  "tellurium": {
    "symbol": "Te",
    "atomicNumber": "52",
    "atomicWeight": "127.600",
    "type": "metalloid",
    "boilingPoint": 1261,
    "meltingPoint": 722.65,
    "row": 6,
    "column": 17,
    "wiki": "https://en.wikipedia.org/wiki/Tellurium",
    "group": 16,
    "period": 5
  },
  "iodine": {
    "symbol": "I",
    "atomicNumber": "53",
    "atomicWeight": "126.900",
    "type": "nonmetal",
    "boilingPoint": 457.4,
    "meltingPoint": 386.7,
    "row": 6,
    "column": 18,
    "wiki": "https://en.wikipedia.org/wiki/Iodine",
    "group": 17,
    "period": 5
  },
  "xenon": {
    "symbol": "Xe",
    "atomicNumber": "54",
    "atomicWeight": "131.290",
    "type": "noble-gas",
    "boilingPoint": 165.051,
    "meltingPoint": 161.3,
    "row": 6,
    "column": 19,
    "wiki": "https://en.wikipedia.org/wiki/Xenon",
    "group": 18,
    "period": 5
  },
  "caesium": {
    "symbol": "Cs",
    "atomicNumber": "55",
    "atomicWeight": "132.910",
    "type": "alkali",
    "boilingPoint": 944,
    "meltingPoint": 301.55,
    "row": 7,
    "column": 2,
    "wiki": "https://en.wikipedia.org/wiki/Caesium",
    "group": 1,
    "period": 6
  },
  "barium": {
    "symbol": "Ba",
    "atomicNumber": "56",
    "atomicWeight": "137.330",
    "type": "alkaline",
    "boilingPoint": 1910,
    "meltingPoint": 1002,
    "row": 7,
    "column": 3,
    "wiki": "https://en.wikipedia.org/wiki/Barium",
    "group": 2,
    "period": 6
  },
  "lanthanum": {
    "symbol": "La",
    "atomicNumber": "57",
    "atomicWeight": "138.910",
    "type": "lanthanoid",
    "boilingPoint": 3737,
    "meltingPoint": 1193,
    "row": 10,
    "column": 5,
    "wiki": "https://en.wikipedia.org/wiki/Lanthanum",
    "group": null,
    "period": 6
  },
  "cerium": {
    "symbol": "Ce",
    "atomicNumber": "58",
    "atomicWeight": "140.120",
    "type": "lanthanoid",
    "boilingPoint": 3716,
    "meltingPoint": 1071,
    "row": 10,
    "column": 6,
    "wiki": "https://en.wikipedia.org/wiki/Cerium",
    "group": null,
    "period": 6
  },
  "praseodymium": {
    "symbol": "Pr",
    "atomicNumber": "59",
    "atomicWeight": "140.910",
    "type": "lanthanoid",
    "boilingPoint": 3403,
    "meltingPoint": 1204,
    "row": 10,
    "column": 7,
    "wiki": "https://en.wikipedia.org/wiki/Praseodymium",
    "group": null,
    "period": 6
  },
  "neodymium": {
    "symbol": "Nd",
    "atomicNumber": "60",
    "atomicWeight": "144.240",
    "type": "lanthanoid",
    "boilingPoint": 3347,
    "meltingPoint": 1289,
    "row": 10,
    "column": 8,
    "wiki": "https://en.wikipedia.org/wiki/Neodymium",
    "group": null,
    "period": 6
  },
  "promethium": {
    "symbol": "Pm",
    "atomicNumber": "61",
    "atomicWeight": "[145]",
    "type": "lanthanoid",
    "boilingPoint": 3273,
    "meltingPoint": 1204,
    "row": 10,
    "column": 9,
    "wiki": "https://en.wikipedia.org/wiki/Promethium",
    "group": null,
    "period": 6
  },
  "samarium": {
    "symbol": "Sm",
    "atomicNumber": "62",
    "atomicWeight": "150.360",
    "type": "lanthanoid",
    "boilingPoint": 2173,
    "meltingPoint": 1345,
    "row": 10,
    "column": 10,
    "wiki": "https://en.wikipedia.org/wiki/Samarium",
    "group": null,
    "period": 6
  },
  "europium": {
    "symbol": "Eu",
    "atomicNumber": "63",
    "atomicWeight": "151.960",
    "type": "lanthanoid",
    "boilingPoint": 1802,
    "meltingPoint": 1095,
    "row": 10,
    "column": 11,
    "wiki": "https://en.wikipedia.org/wiki/Europium",
    "group": null,
    "period": 6
  },
  "gadolinium": {
    "symbol": "Gd",
    "atomicNumber": "64",
    "atomicWeight": "157.250",
    "type": "lanthanoid",
    "boilingPoint": 3273,
    "meltingPoint": 1585,
    "row": 10,
    "column": 12,
    "wiki": "https://en.wikipedia.org/wiki/Gadolinium",
    "group": null,
    "period": 6
  },
  "terbium": {
    "symbol": "Tb",
    "atomicNumber": "65",
    "atomicWeight": "158.930",
    "type": "lanthanoid",
    "boilingPoint": 3396,
    "meltingPoint": 1630,
    "row": 10,
    "column": 13,
    "wiki": "https://en.wikipedia.org/wiki/Terbium",
    "group": null,
    "period": 6
  },
  "dysprosium": {
    "symbol": "Dy",
    "atomicNumber": "66",
    "atomicWeight": "162.500",
    "type": "lanthanoid",
    "boilingPoint": 2840,
    "meltingPoint": 1685,
    "row": 10,
    "column": 14,
    "wiki": "https://en.wikipedia.org/wiki/Dysprosium",
    "group": null,
    "period": 6
  },
  "holmium": {
    "symbol": "Ho",
    "atomicNumber": "67",
    "atomicWeight": "164.930",
    "type": "lanthanoid",
    "boilingPoint": 2873,
    "meltingPoint": 1743,
    "row": 10,
    "column": 15,
    "wiki": "https://en.wikipedia.org/wiki/Holmium",
    "group": null,
    "period": 6
  },
  "erbium": {
    "symbol": "Er",
    "atomicNumber": "68",
    "atomicWeight": "167.260",
    "type": "lanthanoid",
    "boilingPoint": 3141,
    "meltingPoint": 1795,
    "row": 10,
    "column": 16,
    "wiki": "https://en.wikipedia.org/wiki/Erbium",
    "group": null,
    "period": 6
  },
  "thulium": {
    "symbol": "Tm",
    "atomicNumber": "69",
    "atomicWeight": "168.930",
    "type": "lanthanoid",
    "boilingPoint": 2223,
    "meltingPoint": 1818,
    "row": 10,
    "column": 17,
    "wiki": "https://en.wikipedia.org/wiki/Thulium",
    "group": null,
    "period": 6
  },
  "ytterbium": {
    "symbol": "Yb",
    "atomicNumber": "70",
    "atomicWeight": "173.050",
    "type": "lanthanoid",
    "boilingPoint": 1703,
    "meltingPoint": 1097,
    "row": 10,
    "column": 18,
    "wiki": "https://en.wikipedia.org/wiki/Ytterbium",
    "group": null,
    "period": 6
  },
  "lutetium": {
    "symbol": "Lu",
    "atomicNumber": "71",
    "atomicWeight": "174.970",
    "type": "lanthanoid",
    "boilingPoint": 3675,
    "metlingPoint": 1936,
    "row": 10,
    "column": 19,
    "wiki": "https://en.wikipedia.org/wiki/Lutetium",
    "group": null,
    "period": 6
  },
  "hafnium": {
    "symbol": "Hf",
    "atomicNumber": "72",
    "atomicWeight": "178.490",
    "type": "transition-metal",
    "boilingPoint": 4876,
    "meltingPoint": 2506,
    "row": 7,
    "column": 5,
    "wiki": "https://en.wikipedia.org/wiki/Hafnium",
    "group": 4,
    "period": 6
  },
  "tantalum": {
    "symbol": "Ta",
    "atomicNumber": "73",
    "atomicWeight": "180.950",
    "type": "transition-metal",
    "boilingPoint": 5731,
    "meltingPoint": 3269,
    "row": 7,
    "column": 6,
    "wiki": "https://en.wikipedia.org/wiki/Tantalum",
    "group": 5,
    "period": 6
  },
  "tungsten": {
    "symbol": "W",
    "atomicNumber": "74",
    "atomicWeight": "183.840",
    "type": "transition-metal",
    "boilingPoint": 6203,
    "meltingPoint": 3680,
    "row": 7,
    "column": 7,
    "wiki": "https://en.wikipedia.org/wiki/Tungsten",
    "group": 6,
    "period": 6
  },
  "rhenium": {
    "symbol": "Re",
    "atomicNumber": "75",
    "atomicWeight": "186.210",
    "type": "transition-metal",
    "boilingPoint": 5869,
    "meltingPoint": 3453,
    "row": 7,
    "column": 8,
    "wiki": "https://en.wikipedia.org/wiki/Rhenium",
    "group": 7,
    "period": 6
  },
  "osmium": {
    "symbol": "Os",
    "atomicNumber": "76",
    "atomicWeight": "190.230",
    "type": "transition-metal",
    "boilingPoint": 5285,
    "meltingPoint": 3300,
    "row": 7,
    "column": 9,
    "wiki": "https://en.wikipedia.org/wiki/Osmium",
    "group": 8,
    "period": 6
  },
  "iridium": {
    "symbol": "Ir",
    "atomicNumber": "77",
    "atomicWeight": "192.220",
    "type": "transition-metal",
    "boilingPoint": 4403,
    "meltingPoint": 2716,
    "row": 7,
    "column": 10,
    "wiki": "https://en.wikipedia.org/wiki/Iridium",
    "group": 9,
    "period": 6
  },
  "platinum": {
    "symbol": "Pt",
    "atomicNumber": "78",
    "atomicWeight": "195.080",
    "type": "transition-metal",
    "boilingPoint": 4098,
    "meltingPoint": 2045,
    "row": 7,
    "column": 11,
    "wiki": "https://en.wikipedia.org/wiki/Platinum",
    "group": 10,
    "period": 6
  },
  "gold": {
    "symbol": "Au",
    "atomicNumber": "79",
    "atomicWeight": "196.970",
    "type": "transition-metal",
    "boilingPoint": 3243,
    "meltingPoint": 1337.58,
    "row": 7,
    "column": 12,
    "wiki": "https://en.wikipedia.org/wiki/Gold",
    "group": 11,
    "period": 6
  },
  "mercury": {
    "symbol": "Hg",
    "atomicNumber": "80",
    "atomicWeight": "200.590",
    "type": "transition-metal",
    "boilingPoint": 629.88,
    "meltingPoint": 234.28,
    "row": 7,
    "column": 13,
    "wiki": "https://en.wikipedia.org/wiki/Mercury",
    "group": 12,
    "period": 6
  },
  "thallium": {
    "symbol": "Tl",
    "atomicNumber": "81",
    "atomicWeight": "204.380",
    "type": "post-transition-metal",
    "boilingPoint": 1746,
    "meltingPoint": 577,
    "row": 7,
    "column": 14,
    "wiki": "https://en.wikipedia.org/wiki/Thallium",
    "group": 13,
    "period": 6
  },
  "lead": {
    "symbol": "Pb",
    "atomicNumber": "82",
    "atomicWeight": "207.200",
    "type": "post-transition-metal",
    "boilingPoint": 2022,
    "meltingPoint": 600.6,
    "row": 7,
    "column": 15,
    "wiki": "https://en.wikipedia.org/wiki/Lead",
    "group": 14,
    "period": 6
  },
  "bismuth": {
    "symbol": "Bi",
    "atomicNumber": "83",
    "atomicWeight": "208.980",
    "type": "post-transition-metal",
    "boilingPoint": 1837,
    "meltingPoint": 544.52,
    "row": 7,
    "column": 16,
    "wiki": "https://en.wikipedia.org/wiki/Bismuth",
    "group": 15,
    "period": 6
  },
  "polonium": {
    "symbol": "Po",
    "atomicNumber": "84",
    "atomicWeight": "[209]",
    "type": "post-transition-metal",
    "boilingPoint": 1235,
    "meltingPoint": 527,
    "row": 7,
    "column": 17,
    "wiki": "https://en.wikipedia.org/wiki/Polonium",
    "group": 16,
    "period": 6
  },
  "astatine": {
    "symbol": "At",
    "atomicNumber": "85",
    "atomicWeight": "[210]",
    "type": "metalloid",
    "boilingPoint": 638.3,
    "meltingPoint": 575,
    "row": 7,
    "column": 18,
    "wiki": "https://en.wikipedia.org/wiki/Astatine",
    "group": 17,
    "period": 6
  },
  "radon": {
    "symbol": "Rn",
    "atomicNumber": "86",
    "atomicWeight": "[222]",
    "type": "noble-gas",
    "boilingPoint": 211.5,
    "meltingPoint": 202,
    "row": 7,
    "column": 19,
    "wiki": "https://en.wikipedia.org/wiki/Radon",
    "group": 18,
    "period": 6
  },
  "francium": {
    "symbol": "Fr",
    "atomicNumber": "87",
    "atomicWeight": "[223]",
    "type": "alkali",
    "boilingPoint": 949.95,
    "meltingPoint": 300,
    "row": 8,
    "column": 2,
    "wiki": "https://en.wikipedia.org/wiki/Francium",
    "group": 1,
    "period": 7
  },
  "radium": {
    "symbol": "Ra",
    "atomicNumber": "88",
    "atomicWeight": "[226]",
    "type": "alkaline",
    "boilingPoint": 2010,
    "meltingPoint": 973,
    "row": 8,
    "column": 3,
    "wiki": "https://en.wikipedia.org/wiki/Radium",
    "group": 2,
    "period": 7
  },
  "actinium": {
    "symbol": "Ac",
    "atomicNumber": "89",
    "atomicWeight": "[227]",
    "type": "actinoid",
    "boilingPoint": 3471,
    "meltingPoint": 1323,
    "row": 11,
    "column": 5,
    "wiki": "https://en.wikipedia.org/wiki/Actinium",
    "group": null,
    "period": 7
  },
  "thorium": {
    "symbol": "Th",
    "atomicNumber": "90",
    "atomicWeight": "232.040",
    "type": "actinoid",
    "boilingPoint": 5061,
    "meltingPoint": 2028,
    "row": 11,
    "column": 6,
    "wiki": "https://en.wikipedia.org/wiki/Thorium",
    "group": null,
    "period": 7
  },
  "protactinium": {
    "symbol": "Pa",
    "atomicNumber": "91",
    "atomicWeight": "231.040",
    "type": "actinoid",
    "boilingPoint": 4300,
    "meltingPoint": 2113,
    "row": 11,
    "column": 7,
    "wiki": "https://en.wikipedia.org/wiki/Protactinium",
    "group": null,
    "period": 7
  },
  "uranium": {
    "symbol": "U",
    "atomicNumber": "92",
    "atomicWeight": "238.030",
    "type": "actinoid",
    "boilingPoint": 4404,
    "meltingPoint": 1405,
    "row": 11,
    "column": 8,
    "wiki": "https://en.wikipedia.org/wiki/Uranium",
    "group": null,
    "period": 7
  },
  "neptunium": {
    "symbol": "Np",
    "atomicNumber": "93",
    "atomicWeight": "[237]",
    "type": "actinoid",
    "boilingPoint": 4273,
    "meltingPoint": 913,
    "row": 11,
    "column": 9,
    "wiki": "https://en.wikipedia.org/wiki/Neptunium",
    "group": null,
    "period": 7
  },
  "plutonium": {
    "symbol": "Pu",
    "atomicNumber": "94",
    "atomicWeight": "[244]",
    "type": "actinoid",
    "boilingPoint": 3501,
    "meltingPoint": 913,
    "row": 11,
    "column": 10,
    "wiki": "https://en.wikipedia.org/wiki/Plutonium",
    "group": null,
    "period": 7
  },
  "americium": {
    "symbol": "Am",
    "atomicNumber": "95",
    "atomicWeight": "[243]",
    "type": "actinoid",
    "boilingPoint": 2880,
    "meltingPoint": 1267,
    "row": 11,
    "column": 11,
    "wiki": "https://en.wikipedia.org/wiki/Americium",
    "group": null,
    "period": 7
  },
  "curium": {
    "symbol": "Cm",
    "atomicNumber": "96",
    "atomicWeight": "[247]",
    "type": "actinoid",
    "boilingPoint": 3383,
    "meltingPoint": 1340,
    "row": 11,
    "column": 12,
    "wiki": "https://en.wikipedia.org/wiki/Curium",
    "group": null,
    "period": 7
  },
  "berkelium": {
    "symbol": "Bk",
    "atomicNumber": "97",
    "atomicWeight": "[247]",
    "type": "actinoid",
    "boilingPoint": "unknown",
    "meltingPoint": "unknown",
    "row": 11,
    "column": 13,
    "wiki": "https://en.wikipedia.org/wiki/Berkelium",
    "group": null,
    "period": 7
  },
  "californium": {
    "symbol": "Cf",
    "atomicNumber": "98",
    "atomicWeight": "[251]",
    "type": "actinoid",
    "boilingPoint": "unknown",
    "meltingPoint": "unknown",
    "row": 11,
    "column": 14,
    "wiki": "https://en.wikipedia.org/wiki/Californium",
    "group": null,
    "period": 7
  },
  "einsteinium": {
    "symbol": "Es",
    "atomicNumber": "99",
    "atomicWeight": "[252]",
    "type": "actinoid",
    "boilingPoint": "unknown",
    "meltingPoint": "unknown",
    "row": 11,
    "column": 15,
    "wiki": "https://en.wikipedia.org/wiki/Einsteinium",
    "group": null,
    "period": 7
  },
  "fermium": {
    "symbol": "Fm",
    "atomicNumber": "100",
    "atomicWeight": "[257]",
    "type": "actinoid",
    "boilingPoint": "unknown",
    "meltingPoint": "unknown",
    "row": 11,
    "column": 16,
    "wiki": "https://en.wikipedia.org/wiki/Fermium",
    "group": null,
    "period": 7
  },
  "mendelevium": {
    "symbol": "Md",
    "atomicNumber": "101",
    "atomicWeight": "[258]",
    "type": "actinoid",
    "boilingPoint": "unknown",
    "meltingPoint": "unknown",
    "row": 11,
    "column": 17,
    "wiki": "https://en.wikipedia.org/wiki/Mendelevium",
    "group": null,
    "period": 7
  },
  "nobelium": {
    "symbol": "No",
    "atomicNumber": "102",
    "atomicWeight": "[259]",
    "type": "actinoid",
    "boilingPoint": "unknown",
    "meltingPoint": "unknown",
    "row": 11,
    "column": 18,
    "wiki": "https://en.wikipedia.org/wiki/Nobelium",
    "group": null,
    "period": 7
  },
  "lawrencium": {
    "symbol": "Lr",
    "atomicNumber": "103",
    "atomicWeight": "[266]",
    "type": "actinoid",
    "boilingPoint": "unknown",
    "meltingPoint": "unknown",
    "row": 11,
    "column": 19,
    "wiki": "https://en.wikipedia.org/wiki/Lawrencium",
    "group": null,
    "period": 7
  },
  "rutherfordium": {
    "symbol": "Rf",
    "atomicNumber": "104",
    "atomicWeight": "[267]",
    "type": "transition-metal",
    "boilingPoint": "unknown",
    "meltingPoint": "unknown",
    "row": 8,
    "column": 5,
    "wiki": "https://en.wikipedia.org/wiki/Rutherfordium",
    "group": 4,
    "period": 7
  },
  "dubnium": {
    "symbol": "Db",
    "atomicNumber": "105",
    "atomicWeight": "[268]",
    "type": "transition-metal",
    "boilingPoint": "unknown",
    "meltingPoint": "unknown",
    "row": 8,
    "column": 6,
    "wiki": "https://en.wikipedia.org/wiki/Dubnium",
    "group": 5,
    "period": 7
  },
  "seaborgium": {
    "symbol": "Sg",
    "atomicNumber": "106",
    "atomicWeight": "[269]",
    "type": "transition-metal",
    "boilingPoint": "unknown",
    "meltingPoint": "unknown",
    "row": 8,
    "column": 7,
    "wiki": "https://en.wikipedia.org/wiki/Seaborgium",
    "group": 6,
    "period": 7
  },
  "bohrium": {
    "symbol": "Bh",
    "atomicNumber": "107",
    "atomicWeight": "[270]",
    "type": "transition-metal",
    "boilingPoint": "unknown",
    "meltingPoint": "unknown",
    "row": 8,
    "column": 8,
    "wiki": "https://en.wikipedia.org/wiki/Bohrium",
    "group": 7,
    "period": 7
  },
  "hassium": {
    "symbol": "Hs",
    "atomicNumber": "108",
    "atomicWeight": "[270]",
    "type": "transition-metal",
    "boilingPoint": "unknown",
    "meltingPoint": "unknown",
    "row": 8,
    "column": 9,
    "wiki": "https://en.wikipedia.org/wiki/Hassium",
    "group": 8,
    "period": 7
  },
  "meitnerium": {
    "symbol": "Mt",
    "atomicNumber": "109",
    "atomicWeight": "[278]",
    "type": "no-type",
    "boilingPoint": "unknown",
    "meltingPoint": "unknown",
    "row": 8,
    "column": 10,
    "wiki": "https://en.wikipedia.org/wiki/Meitnerium",
    "group": 9,
    "period": 7
  },
  "darmstadtium": {
    "symbol": "Ds",
    "atomicNumber": "110",
    "atomicWeight": "[281]",
    "type": "no-type",
    "boilingPoint": "unknown",
    "meltingPoint": "unknown",
    "row": 8,
    "column": 11,
    "wiki": "https://en.wikipedia.org/wiki/Darmstadtium",
    "group": 10,
    "period": 7
  },
  "roentgenium": {
    "symbol": "Rg",
    "atomicNumber": "111",
    "atomicWeight": "[282]",
    "type": "no-type",
    "boilingPoint": "unknown",
    "meltingPoint": "unknown",
    "row": 8,
    "column": 12,
    "wiki": "https://en.wikipedia.org/wiki/Roentgenium",
    "group": 11,
    "period": 7
  },
  "copernicium": {
    "symbol": "Cn",
    "atomicNumber": "112",
    "atomicWeight": "[285]",
    "type": "transition-metal",
    "boilingPoint": "unknown",
    "meltingPoint": "unknown",
    "row": 8,
    "column": 13,
    "wiki": "https://en.wikipedia.org/wiki/Copernicium",
    "group": 12,
    "period": 7
  },
  "nihonium": {
    "symbol": "Nh",
    "atomicNumber": "113",
    "atomicWeight": "[286]",
    "type": "no-type",
    "boilingPoint": "unknown",
    "meltingPoint": "unknown",
    "row": 8,
    "column": 14,
    "wiki": "https://en.wikipedia.org/wiki/Nihonium",
    "group": 13,
    "period": 7
  },
  "flerovium": {
    "symbol": "Fl",
    "atomicNumber": "114",
    "atomicWeight": "[289]",
    "type": "post-transition-metal",
    "boilingPoint": "unknown",
    "meltingPoint": "unknown",
    "row": 8,
    "column": 15,
    "wiki": "https://en.wikipedia.org/wiki/Flerovium",
    "group": 14,
    "period": 7
  },
  "moscovium": {
    "symbol": "Mc",
    "atomicNumber": "115",
    "atomicWeight": "[290]",
    "type": "no-type",
    "boilingPoint": "unknown",
    "meltingPoint": "unknown",
    "row": 8,
    "column": 16,
    "wiki": "https://en.wikipedia.org/wiki/Moscovium",
    "group": 15,
    "period": 7
  },
  "livermorium": {
    "symbol": "Lv",
    "atomicNumber": "116",
    "atomicWeight": "[293]",
    "type": "no-type",
    "boilingPoint": "unknown",
    "meltingPoint": "unknown",
    "row": 8,
    "column": 17,
    "wiki": "https://en.wikipedia.org/wiki/Livermorium",
    "group": 16,
    "period": 7
  },
  "tennessine": {
    "symbol": "Ts",
    "atomicNumber": "117",
    "atomicWeight": "[294]",
    "type": "no-type",
    "boilingPoint": "unknown",
    "meltingPoint": "unknown",
    "row": 8,
    "column": 18,
    "wiki": "https://en.wikipedia.org/wiki/Tennessine",
    "group": 17,
    "period": 7
  },
  "oganesson": {
    "symbol": "Og",
    "atomicNumber": "118",
    "atomicWeight": "[294]",
    "type": "no-type",
    "boilingPoint": "unknown",
    "meltingPoint": "unknown",
    "row": 8,
    "column": 19,
    "wiki": "https://en.wikipedia.org/wiki/Oganesson",
    "group": 18,
    "period": 7
  }
}
