{
  "hydrogen": {
    "symbol": "H",
    "atomicNumber": 1,
    "atomicWeight": "1.008",
    "type": "nonmetal",
    "boilingPoint": 20.271,
    "meltingPoint": 14.025,
    "row": 2,
    "column": 2,
    "group": 1,
    "period": 1
  },
  "helium": {
    "symbol": "He",
    "atomicNumber": 2,
    "atomicWeight": "4.003",
    "type": "nobleGas",
    "boilingPoint": 4.222,
    "meltingPoint": 0.95,
    "row": 2,
    "column": 19,
    "group": 18,
    "period": 1
  },
  "lithium": {
    "symbol": "Li",
    "atomicNumber": 3,
    "atomicWeight": "6.941",
    "type": "alkali",
    "boilingPoint": 1603,
    "meltingPoint": 453.7,
    "row": 3,
    "column": 2,
    "group": 1,
    "period": 2
  },
  "beryllium": {
    "symbol": "Be",
    "atomicNumber": 4,
    "atomicWeight": "9.012",
    "type": "alkaline",
    "boilingPoint": 2742,
    "meltingPoint": 1560,
    "row": 3,
    "column": 3,
    "group": 2,
    "period": 2
  },
  "boron": {
    "symbol": "B",
    "atomicNumber": 5,
    "atomicWeight": "10.811",
    "type": "metalloid",
    "boilingPoint": 4200,
    "meltingPoint": 2573,
    "row": 3,
    "column": 14,
    "group": 13,
    "period": 2
  },
  "carbon": {
    "symbol": "C",
    "atomicNumber": 6,
    "atomicWeight": "12.011",
    "type": "nonmetal",
    "boilingPoint": 4300,
    "meltingPoint": 3773,
    "row": 3,
    "column": 15,
    "group": 14,
    "period": 2
  },
  "nitrogen": {
    "symbol": "N",
    "atomicNumber": 7,
    "atomicWeight": "14.007",
    "type": "nonmetal",
    "boilingPoint": 77.355,
    "meltingPoint": 63.14,
    "row": 3,
    "column": 16,
    "group": 15,
    "period": 2
  },
  "oxygen": {
    "symbol": "O",
    "atomicNumber": 8,
    "atomicWeight": "15.999",
    "type": "nonmetal",
    "boilingPoint": 90.188,
    "meltingPoint": 50.35,
    "row": 3,
    "column": 17,
    "group": 16,
    "period": 2
  },
  "fluorine": {
    "symbol": "F",
    "atomicNumber": 9,
    "atomicWeight": "18.998",
    "type": "nonmetal",
    "boilingPoint": 85.04,
    "meltingPoint": 53.48,
    "row": 3,
    "column": 18,
    "group": 17,
    "period": 2
  },
  "neon": {
    "symbol": "Ne",
    "atomicNumber": 10,
    "atomicWeight": "20.1797",
    "type": "nobleGas",
    "boilingPoint": 27.104,
    "meltingPoint": 24.553,
    "row": 3,
    "column": 19,
    "group": 18,
    "period": 2
  },
  "sodium": {
    "symbol": "Na",
    "atomicNumber": 11,
    "atomicWeight": "22.9897",
    "type": "alkali",
    "boilingPoint": 1156.09,
    "meltingPoint": 371,
    "row": 4,
    "column": 2,
    "group": 1,
    "period": 3
  },
  "magnesium": {
    "symbol": "Mg",
    "atomicNumber": 12,
    "atomicWeight": "24.305",
    "type": "alkaline",
    "boilingPoint": 1363,
    "meltingPoint": 922,
    "row": 4,
    "column": 3,
    "group": 2,
    "period": 3
  },
  "aluminum": {
    "symbol": "Al",
    "atomicNumber": 13,
    "atomicWeight": "26.982",
    "type": "postTransitionMetal",
    "boilingPoint": 2743,
    "meltingPoint": 933.25,
    "row": 4,
    "column": 14,
    "group": 13,
    "period": 3
  },
  "silicon": {
    "symbol": "Si",
    "atomicNumber": 14,
    "atomicWeight": "28.085",
    "type": "metalloid",
    "boilingPoint": 3538,
    "meltingPoint": 1683,
    "row": 4,
    "column": 15,
    "group": 14,
    "period": 3
  },
  "phosphorus": {
    "symbol": "P",
    "atomicNumber": 15,
    "atomicWeight": "30.974",
    "type": "nonmetal",
    "boilingPoint": 550,
    "meltingPoint": 317.3,
    "row": 4,
    "column": 16,
    "group": 15,
    "period": 3
  },
  "sulfur": {
    "symbol": "S",
    "atomicNumber": 16,
    "atomicWeight": "32.066",
    "type": "nonmetal",
    "boilingPoint": 717.87,
    "meltingPoint": 388.36,
    "row": 4,
    "column": 17,
    "group": 16,
    "period": 3
  },
  "chlorine": {
    "symbol": "Cl",
    "atomicNumber": 17,
    "atomicWeight": "35.452",
    "type": "nonmetal",
    "boilingPoint": 239.11,
    "meltingPoint": 172.16,
    "row": 4,
    "column": 18,
    "group": 17,
    "period": 3
  },
  "argon": {
    "symbol": "Ar",
    "atomicNumber": 18,
    "atomicWeight": "39.948",
    "type": "nobleGas",
    "boilingPoint": 87.302,
    "meltingPoint": 83.81,
    "row": 4,
    "column": 19,
    "group": 18,
    "period": 3
  },
  "potassium": {
    "symbol": "K",
    "atomicNumber": 19,
    "atomicWeight": "39.098",
    "type": "alkali",
    "boilingPoint": 1032,
    "meltingPoint": 336.35,
    "row": 5,
    "column": 2,
    "group": 1,
    "period": 4
  },
  "calcium": {
    "symbol": "Ca",
    "atomicNumber": 20,
    "atomicWeight": "40.078",
    "type": "alkaline",
    "boilingPoint": 1757,
    "meltingPoint": 1112,
    "row": 5,
    "column": 3,
    "group": 2,
    "period": 4
  },
  "scandium": {
    "symbol": "Sc",
    "atomicNumber": 21,
    "atomicWeight": "44.956",
    "type": "transitionMetal",
    "boilingPoint": 3109,
    "meltingPoint": 1812,
    "row": 5,
    "column": 4,
    "group": 3,
    "period": 4
  },
  "titanium": {
    "symbol": "Ti",
    "atomicNumber": 22,
    "atomicWeight": "47.867",
    "type": "transitionMetal",
    "boilingPoint": 3560,
    "meltingPoint": 1933,
    "row": 5,
    "column": 5,
    "group": 4,
    "period": 4
  },
  "vanadium": {
    "symbol": "V",
    "atomicNumber": 23,
    "atomicWeight": "50.942",
    "type": "transitionMetal",
    "boilingPoint": 3680,
    "meltingPoint": 2175,
    "row": 5,
    "column": 6,
    "group": 5,
    "period": 4
  },
  "chromium": {
    "symbol": "Cr",
    "atomicNumber": 24,
    "atomicWeight": "51.996",
    "type": "transitionMetal",
    "boilingPoint": 2755,
    "meltingPoint": 2130,
    "row": 5,
    "column": 7,
    "group": 6,
    "period": 4
  },
  "manganese": {
    "symbol": "Mn",
    "atomicNumber": 25,
    "atomicWeight": "54.938",
    "type": "transitionMetal",
    "boilingPoint": 2334,
    "meltingPoint": 1517,
    "row": 5,
    "column": 8,
    "group": 7,
    "period": 4
  },
  "iron": {
    "symbol": "Fe",
    "atomicNumber": 26,
    "atomicWeight": "55.845",
    "type": "transitionMetal",
    "boilingPoint": 3134,
    "meltingPoint": 1808,
    "row": 5,
    "column": 9,
    "group": 8,
    "period": 4
  },
  "cobalt": {
    "symbol": "Co",
    "atomicNumber": 27,
    "atomicWeight": "58.933",
    "type": "transitionMetal",
    "boilingPoint": 3200,
    "meltingPoint": 1768,
    "row": 5,
    "column": 10,
    "group": 9,
    "period": 4
  },
  "nickel": {
    "symbol": "Ni",
    "atomicNumber": 28,
    "atomicWeight": "58.693",
    "type": "transitionMetal",
    "boilingPoint": 3003,
    "meltingPoint": 1728,
    "row": 5,
    "column": 11,
    "group": 10,
    "period": 4
  },
  "copper": {
    "symbol": "Cu",
    "atomicNumber": 29,
    "atomicWeight": "63.546",
    "type": "transitionMetal",
    "boilingPoint": 2835,
    "meltingPoint": 1357.6,
    "row": 5,
    "column": 12,
    "group": 11,
    "period": 4
  },
  "zinc": {
    "symbol": "Zn",
    "atomicNumber": 30,
    "atomicWeight": "65.38",
    "type": "transitionMetal",
    "boilingPoint": 1180,
    "meltingPoint": 692.73,
    "row": 5,
    "column": 13,
    "group": 12,
    "period": 4
  },
  "gallium": {
    "symbol": "Ga",
    "atomicNumber": 31,
    "atomicWeight": "69.723",
    "type": "postTransitionMetal",
    "boilingPoint": 2673,
    "meltingPoint": 302.9,
    "row": 5,
    "column": 14,
    "group": 13,
    "period": 4
  },
  "germanium": {
    "symbol": "Ge",
    "atomicNumber": 32,
    "atomicWeight": "72.63",
    "type": "metalloid",
    "boilingPoint": 3106,
    "meltingPoint": 1210.4,
    "row": 5,
    "column": 15,
    "group": 14,
    "period": 4
  },
  "arsenic": {
    "symbol": "As",
    "atomicNumber": 33,
    "atomicWeight": "74.922",
    "type": "metalloid",
    "boilingPoint": 887,
    "meltingPoint": 1081,
    "row": 5,
    "column": 16,
    "group": 15,
    "period": 4
  },
  "selenium": {
    "symbol": "Se",
    "atomicNumber": 34,
    "atomicWeight": "78.971",
    "type": "nonmetal",
    "boilingPoint": 958,
    "meltingPoint": 494,
    "row": 5,
    "column": 17,
    "group": 16,
    "period": 4
  },
  "bromine": {
    "symbol": "Br",
    "atomicNumber": 35,
    "atomicWeight": "79.904",
    "type": "nonmetal",
    "boilingPoint": 332,
    "meltingPoint": 265.9,
    "row": 5,
    "column": 18,
    "group": 17,
    "period": 4
  },
  "krypton": {
    "symbol": "Kr",
    "atomicNumber": 36,
    "atomicWeight": "83.798",
    "type": "nobleGas",
    "boilingPoint": 119.735,
    "meltingPoint": 115.78,
    "row": 5,
    "column": 19,
    "group": 18,
    "period": 4
  },
  "rubidium": {
    "symbol": "Rb",
    "atomicNumber": 37,
    "atomicWeight": "85.468",
    "type": "alkali",
    "boilingPoint": 961,
    "meltingPoint": 312.64,
    "row": 6,
    "column": 2,
    "group": 1,
    "period": 5
  },
  "strontium": {
    "symbol": "Sr",
    "atomicNumber": 38,
    "atomicWeight": "87.62",
    "type": "alkaline",
    "boilingPoint": 1650,
    "meltingPoint": 1042,
    "row": 6,
    "column": 3,
    "group": 2,
    "period": 5
  },
  "yttrium": {
    "symbol": "Y",
    "atomicNumber": 39,
    "atomicWeight": "88.906",
    "type": "transitionMetal",
    "boilingPoint": 3203,
    "meltingPoint": 1799,
    "row": 6,
    "column": 4,
    "group": 3,
    "period": 5
  },
  "zirconium": {
    "symbol": "Zr",
    "atomicNumber": 40,
    "atomicWeight": 91.224,
    "type": "transitionMetal",
    "boilingPoint": 4650,
    "meltingPoint": 2125,
    "row": 6,
    "column": 5,
    "group": 4,
    "period": 5
  },
  "niobium": {
    "symbol": "Nb",
    "atomicNumber": 41,
    "atomicWeight": "92.906",
    "type": "transitionMetal",
    "boilingPoint": 5017,
    "meltingPoint": 2741,
    "row": 6,
    "column": 6,
    "group": 5,
    "period": 5
  },
  "molybdenum": {
    "symbol": "Mo",
    "atomicNumber": 42,
    "atomicWeight": "95.95",
    "type": "transitionMetal",
    "boilingPoint": 4912,
    "meltingPoint": 2890,
    "row": 6,
    "column": 7,
    "group": 6,
    "period": 5
  },
  "technetium": {
    "symbol": "Tc",
    "atomicNumber": 43,
    "atomicWeight": "[98]",
    "type": "transitionMetal",
    "boilingPoint": 4538,
    "meltingPoint": 2473,
    "row": 6,
    "column": 8,
    "group": 7,
    "period": 5
  },
  "ruthenium": {
    "symbol": "Ru",
    "atomicNumber": 44,
    "atomicWeight": "101.07",
    "type": "transitionMetal",
    "boilingPoint": 4423,
    "meltingPoint": 2523,
    "row": 6,
    "column": 9,
    "group": 8,
    "period": 5
  },
  "rhodium": {
    "symbol": "Rh",
    "atomicNumber": 45,
    "atomicWeight": "102.91",
    "type": "transitionMetal",
    "boilingPoint": 3968,
    "meltingPoint": 2239,
    "row": 6,
    "column": 10,
    "group": 9,
    "period": 5
  },
  "palladium": {
    "symbol": "Pd",
    "atomicNumber": 46,
    "atomicWeight": "106.42",
    "type": "transitionMetal",
    "boilingPoint": 3236,
    "meltingPoint": 1825,
    "row": 6,
    "column": 11,
    "group": 10,
    "period": 5
  },
  "silver": {
    "symbol": "Ag",
    "atomicNumber": 47,
    "atomicWeight": "107.868",
    "type": "transitionMetal",
    "boilingPoint": 2483,
    "meltingPoint": 1234,
    "row": 6,
    "column": 12,
    "group": 11,
    "period": 5
  },
  "cadmium": {
    "symbol": "Cd",
    "atomicNumber": 48,
    "atomicWeight": "112.414",
    "type": "transitionMetal",
    "boilingPoint": 1040,
    "meltingPoint": 594.18,
    "row": 6,
    "column": 13,
    "group": 12,
    "period": 5
  },
  "indium": {
    "symbol": "In",
    "atomicNumber": 49,
    "atomicWeight": "114.818",
    "type": "postTransitionMetal",
    "boilingPoint": 2345,
    "meltingPoint": 429.76,
    "row": 6,
    "column": 14,
    "group": 13,
    "period": 5
  },
  "tin": {
    "symbol": "Sn",
    "atomicNumber": 50,
    "atomicWeight": "118.71",
    "type": "postTransitionMetal",
    "boilingPoint": 2875,
    "meltingPoint": 505.06,
    "row": 6,
    "column": 15,
    "group": 14,
    "period": 5
  },
  "antimony": {
    "symbol": "Sb",
    "atomicNumber": 51,
    "atomicWeight": "121.76",
    "type": "metalloid",
    "boilingPoint": 1908,
    "meltingPoint": 903.9,
    "row": 6,
    "column": 16,
    "group": 15,
    "period": 5
  },
  "tellurium": {
    "symbol": "Te",
    "atomicNumber": 52,
    "atomicWeight": "127.6",
    "type": "metalloid",
    "boilingPoint": 1261,
    "meltingPoint": 722.65,
    "row": 6,
    "column": 17,
    "group": 16,
    "period": 5
  },
  "iodine": {
    "symbol": "I",
    "atomicNumber": 53,
    "atomicWeight": "126.9045",
    "type": "nonmetal",
    "boilingPoint": 457.4,
    "meltingPoint": 386.7,
    "row": 6,
    "column": 18,
    "group": 17,
    "period": 5
  },
  "xenon": {
    "symbol": "Xe",
    "atomicNumber": 54,
    "atomicWeight": "131.293",
    "type": "nobleGas",
    "boilingPoint": 165.051,
    "meltingPoint": 161.3,
    "row": 6,
    "column": 19,
    "group": 18,
    "period": 5
  },
  "caesium": {
    "symbol": "Cs",
    "atomicNumber": 55,
    "atomicWeight": "132.905",
    "type": "alkali",
    "boilingPoint": 944,
    "meltingPoint": 301.55,
    "row": 7,
    "column": 2,
    "group": 1,
    "period": 6
  },
  "barium": {
    "symbol": "Ba",
    "atomicNumber": 56,
    "atomicWeight": "137.327",
    "type": "alkaline",
    "boilingPoint": 2143,
    "meltingPoint": 1000,
    "row": 7,
    "column": 3,
    "group": 2,
    "period": 6
  },
  "lanthanum": {
    "symbol": "La",
    "atomicNumber": 57,
    "atomicWeight": "138.9055",
    "type": "lanthanoid",
    "boilingPoint": 3737,
    "meltingPoint": 1193,
    "row": 10,
    "column": 5,
    "group": "none",
    "period": 6
  },
  "cerium": {
    "symbol": "Ce",
    "atomicNumber": 58,
    "atomicWeight": "140.116",
    "type": "lanthanoid",
    "boilingPoint": 3716,
    "meltingPoint": 1071,
    "row": 10,
    "column": 6,
    "group": "none",
    "period": 6
  },
  "praseodymium": {
    "symbol": "Pr",
    "atomicNumber": 59,
    "atomicWeight": "140.908",
    "type": "lanthanoid",
    "boilingPoint": 3403,
    "meltingPoint": 1204,
    "row": 10,
    "column": 7,
    "group": "none",
    "period": 6
  },
  "neodymium": {
    "symbol": "Nd",
    "atomicNumber": 60,
    "atomicWeight": "144.242",
    "type": "lanthanoid",
    "boilingPoint": 3347,
    "meltingPoint": 1289,
    "row": 10,
    "column": 8,
    "group": "none",
    "period": 6
  },
  "promethium": {
    "symbol": "Pm",
    "atomicNumber": 61,
    "atomicWeight": "[145]",
    "type": "lanthanoid",
    "boilingPoint": 3273,
    "meltingPoint": 1204,
    "row": 10,
    "column": 9,
    "group": "none",
    "period": 6
  },
  "samarium": {
    "symbol": "Sm",
    "atomicNumber": 62,
    "atomicWeight": "150.36",
    "type": "lanthanoid",
    "boilingPoint": 2173,
    "meltingPoint": 1345,
    "row": 10,
    "column": 10,
    "group": "none",
    "period": 6
  },
  "europium": {
    "symbol": "Eu",
    "atomicNumber": 63,
    "atomicWeight": "151.964",
    "type": "lanthanoid",
    "boilingPoint": 1802,
    "meltingPoint": 1095,
    "row": 10,
    "column": 11,
    "group": "none",
    "period": 6
  },
  "gadolinium": {
    "symbol": "Gd",
    "atomicNumber": 64,
    "atomicWeight": "157.25",
    "type": "lanthanoid",
    "boilingPoint": 3273,
    "meltingPoint": 1585,
    "row": 10,
    "column": 12,
    "group": "none",
    "period": 6
  },
  "terbium": {
    "symbol": "Tb",
    "atomicNumber": 65,
    "atomicWeight": "158.925",
    "type": "lanthanoid",
    "boilingPoint": 3396,
    "meltingPoint": 1630,
    "row": 10,
    "column": 13,
    "group": "none",
    "period": 6
  },
  "dysprosium": {
    "symbol": "Dy",
    "atomicNumber": 66,
    "atomicWeight": "162.5",
    "type": "lanthanoid",
    "boilingPoint": 2840,
    "meltingPoint": 1685,
    "row": 10,
    "column": 14,
    "group": "none",
    "period": 6
  },
  "holmium": {
    "symbol": "Ho",
    "atomicNumber": 67,
    "atomicWeight": "164.9303",
    "type": "lanthanoid",
    "boilingPoint": 2873,
    "meltingPoint": 1743,
    "row": 10,
    "column": 15,
    "group": "none",
    "period": 6
  },
  "erbium": {
    "symbol": "Er",
    "atomicNumber": 68,
    "atomicWeight": "167.259",
    "type": "lanthanoid",
    "boilingPoint": 3141,
    "meltingPoint": 1795,
    "row": 10,
    "column": 16,
    "group": "none",
    "period": 6
  },
  "thulium": {
    "symbol": "Tm",
    "atomicNumber": 69,
    "atomicWeight": "168.934",
    "type": "lanthanoid",
    "boilingPoint": 2223,
    "meltingPoint": 1818,
    "row": 10,
    "column": 17,
    "group": "none",
    "period": 6
  },
  "ytterbium": {
    "symbol": "Yb",
    "atomicNumber": 70,
    "atomicWeight": "173.045",
    "type": "lanthanoid",
    "boilingPoint": 1703,
    "meltingPoint": 1097,
    "row": 10,
    "column": 18,
    "group": "none",
    "period": 6
  },
  "lutetium": {
    "symbol": "Lu",
    "atomicNumber": 71,
    "atomicWeight": "174.9668",
    "type": "lanthanoid",
    "boilingPoint": 3675,
    "meltingPoint": 1936,
    "row": 10,
    "column": 19,
    "group": "none",
    "period": 6
  },
  "hafnium": {
    "symbol": "Hf",
    "atomicNumber": 72,
    "atomicWeight": "178.49",
    "type": "transitionMetal",
    "boilingPoint": 4876,
    "meltingPoint": 2506,
    "row": 7,
    "column": 5,
    "group": 4,
    "period": 6
  },
  "tantalum": {
    "symbol": "Ta",
    "atomicNumber": 73,
    "atomicWeight": "180.949",
    "type": "transitionMetal",
    "boilingPoint": 5731,
    "meltingPoint": 3269,
    "row": 7,
    "column": 6,
    "group": 5,
    "period": 6
  },
  "tungsten": {
    "symbol": "W",
    "atomicNumber": 74,
    "atomicWeight": "183.84",
    "type": "transitionMetal",
    "boilingPoint": 6203,
    "meltingPoint": 3680,
    "row": 7,
    "column": 7,
    "group": 6,
    "period": 6
  },
  "rhenium": {
    "symbol": "Re",
    "atomicNumber": 75,
    "atomicWeight": "186.2-7",
    "type": "transitionMetal",
    "boilingPoint": 5869,
    "meltingPoint": 3453,
    "row": 7,
    "column": 8,
    "group": 7,
    "period": 6
  },
  "osmium": {
    "symbol": "Os",
    "atomicNumber": 76,
    "atomicWeight": "190.23",
    "type": "transitionMetal",
    "boilingPoint": 5285,
    "meltingPoint": 3300,
    "row": 7,
    "column": 9,
    "group": 8,
    "period": 6
  },
  "iridium": {
    "symbol": "Ir",
    "atomicNumber": 77,
    "atomicWeight": "192.217",
    "type": "transitionMetal",
    "boilingPoint": 4403,
    "meltingPoint": 2716,
    "row": 7,
    "column": 10,
    "group": 9,
    "period": 6
  },
  "platinum": {
    "symbol": "Pt",
    "atomicNumber": 78,
    "atomicWeight": "195.084",
    "type": "transitionMetal",
    "boilingPoint": 4098,
    "meltingPoint": 2045,
    "row": 7,
    "column": 11,
    "group": 10,
    "period": 6
  },
  "gold": {
    "symbol": "Au",
    "atomicNumber": 79,
    "atomicWeight": "196.967",
    "type": "transitionMetal",
    "boilingPoint": 3243,
    "meltingPoint": 1337.58,
    "row": 7,
    "column": 12,
    "group": 11,
    "period": 6
  },
  "mercury": {
    "symbol": "Hg",
    "atomicNumber": 80,
    "atomicWeight": "200.592",
    "type": "transitionMetal",
    "boilingPoint": 629.88,
    "meltingPoint": 234.28,
    "row": 7,
    "column": 13,
    "group": 12,
    "period": 6
  },
  "thallium": {
    "symbol": "Tl",
    "atomicNumber": 81,
    "atomicWeight": "204.3833",
    "type": "postTransitionMetal",
    "boilingPoint": 1746,
    "meltingPoint": 577,
    "row": 7,
    "column": 14,
    "group": 13,
    "period": 6
  },
  "lead": {
    "symbol": "Pb",
    "atomicNumber": 82,
    "atomicWeight": "207.2",
    "type": "postTransitionMetal",
    "boilingPoint": 2022,
    "meltingPoint": 600.6,
    "row": 7,
    "column": 15,
    "group": 14,
    "period": 6
  },
  "bismuth": {
    "symbol": "Bi",
    "atomicNumber": 83,
    "atomicWeight": "208.9804",
    "type": "postTransitionMetal",
    "boilingPoint": 1837,
    "meltingPoint": 544.52,
    "row": 7,
    "column": 16,
    "group": 15,
    "period": 6
  },
  "polonium": {
    "symbol": "Po",
    "atomicNumber": 84,
    "atomicWeight": "[209]",
    "type": "postTransitionMetal",
    "boilingPoint": 1235,
    "meltingPoint": 527,
    "row": 7,
    "column": 17,
    "group": 16,
    "period": 6
  },
  "astatine": {
    "symbol": "At",
    "atomicNumber": 85,
    "atomicWeight": "[210]",
    "type": "metalloid",
    "boilingPoint": 638.3,
    "meltingPoint": 575,
    "row": 7,
    "column": 18,
    "group": 17,
    "period": 6
  },
  "radon": {
    "symbol": "Rn",
    "atomicNumber": 86,
    "atomicWeight": "[222]",
    "type": "nobleGas",
    "boilingPoint": 211.5,
    "meltingPoint": 202,
    "row": 7,
    "column": 19,
    "group": 18,
    "period": 6
  },
  "francium": {
    "symbol": "Fr",
    "atomicNumber": 87,
    "atomicWeight": "[223]",
    "type": "alkali",
    "boilingPoint": 949.95,
    "meltingPoint": 300,
    "row": 8,
    "column": 2,
    "group": 1,
    "period": 7
  },
  "radium": {
    "symbol": "Ra",
    "atomicNumber": 88,
    "atomicWeight": "[226]",
    "type": "alkaline",
    "boilingPoint": 2010,
    "meltingPoint": 973,
    "row": 8,
    "column": 3,
    "group": 2,
    "period": 7
  },
  "actinium": {
    "symbol": "Ac",
    "atomicNumber": "89",
    "atomicWeight": "[227]",
    "type": "actinoid",
    "boilingPoint": 3471,
    "meltingPoint": 1323,
    "row": 11,
    "column": 5,
    "group": "none",
    "period": 7
  },
  "thorium": {
    "symbol": "Th",
    "atomicNumber": 90,
    "atomicWeight": "232.0377",
    "type": "actinoid",
    "boilingPoint": 5061,
    "meltingPoint": 2028,
    "row": 11,
    "column": 6,
    "group": "none",
    "period": 7
  },
  "protactinium": {
    "symbol": "Pa",
    "atomicNumber": 91,
    "atomicWeight": "231.03588",
    "type": "actinoid",
    "boilingPoint": 4300,
    "meltingPoint": 1845,
    "row": 11,
    "column": 7,
    "group": "none",
    "period": 7
  },
  "uranium": {
    "symbol": "U",
    "atomicNumber": 92,
    "atomicWeight": "238.02891",
    "type": "actinoid",
    "boilingPoint": 4404,
    "meltingPoint": 1405,
    "row": 11,
    "column": 8,
    "group": "none",
    "period": 7
  },
  "neptunium": {
    "symbol": "Np",
    "atomicNumber": 93,
    "atomicWeight": "[237]",
    "type": "actinoid",
    "boilingPoint": 4273,
    "meltingPoint": 913,
    "row": 11,
    "column": 9,
    "group": "none",
    "period": 7
  },
  "plutonium": {
    "symbol": "Pu",
    "atomicNumber": "94",
    "atomicWeight": "[244]",
    "type": "actinoid",
    "boilingPoint": 3501,
    "meltingPoint": 913,
    "row": 11,
    "column": 10,
    "group": "none",
    "period": 7
  },
  "americium": {
    "symbol": "Am",
    "atomicNumber": 95,
    "atomicWeight": "[243]",
    "type": "actinoid",
    "boilingPoint": 2880,
    "meltingPoint": 1267,
    "row": 11,
    "column": 11,
    "group": "none",
    "period": 7
  },
  "curium": {
    "symbol": "Cm",
    "atomicNumber": 96,
    "atomicWeight": "[247]",
    "type": "actinoid",
    "boilingPoint": 3383,
    "meltingPoint": 1618,
    "row": 11,
    "column": 12,
    "group": "none",
    "period": 7
  },
  "berkelium": {
    "symbol": "Bk",
    "atomicNumber": 97,
    "atomicWeight": "[247]",
    "type": "actinoid",
    "boilingPoint": "unknown",
    "meltingPoint": 1323,
    "row": 11,
    "column": 13,
    "group": "none",
    "period": 7
  },
  "californium": {
    "symbol": "Cf",
    "atomicNumber": 98,
    "atomicWeight": "[251]",
    "type": "actinoid",
    "boilingPoint": "unknown",
    "meltingPoint": 1173,
    "row": 11,
    "column": 14,
    "group": "none",
    "period": 7
  },
  "einsteinium": {
    "symbol": "Es",
    "atomicNumber": 99,
    "atomicWeight": "[252]",
    "type": "actinoid",
    "boilingPoint": "unknown",
    "meltingPoint": 1133,
    "row": 11,
    "column": 15,
    "group": "none",
    "period": 7
  },
  "fermium": {
    "symbol": "Fm",
    "atomicNumber": 100,
    "atomicWeight": "[257]",
    "type": "actinoid",
    "boilingPoint": "unknown",
    "meltingPoint": 1800,
    "row": 11,
    "column": 16,
    "group": "none",
    "period": 7
  },
  "mendelevium": {
    "symbol": "Md",
    "atomicNumber": 101,
    "atomicWeight": "[258]",
    "type": "actinoid",
    "boilingPoint": "unknown",
    "meltingPoint": 1100,
    "row": 11,
    "column": 17,
    "group": "none",
    "period": 7
  },
  "nobelium": {
    "symbol": "No",
    "atomicNumber": 102,
    "atomicWeight": "[259]",
    "type": "actinoid",
    "boilingPoint": "unknown",
    "meltingPoint": 1100,
    "row": 11,
    "column": 18,
    "group": "none",
    "period": 7
  },
  "lawrencium": {
    "symbol": "Lr",
    "atomicNumber": "103",
    "atomicWeight": "[266]",
    "type": "actinoid",
    "boilingPoint": "unknown",
    "meltingPoint": 1900,
    "row": 11,
    "column": 19,
    "group": "none",
    "period": 7
  },
  "rutherfordium": {
    "symbol": "Rf",
    "atomicNumber": 104,
    "atomicWeight": "[267]",
    "type": "transitionMetal",
    "boilingPoint": "unknown",
    "meltingPoint": "unknown",
    "row": 8,
    "column": 5,
    "group": 4,
    "period": 7
  },
  "dubnium": {
    "symbol": "Db",
    "atomicNumber": 105,
    "atomicWeight": "[268]",
    "type": "transitionMetal",
    "boilingPoint": "unknown",
    "meltingPoint": "unknown",
    "row": 8,
    "column": 6,
    "group": 5,
    "period": 7
  },
  "seaborgium": {
    "symbol": "Sg",
    "atomicNumber": 106,
    "atomicWeight": "[269]",
    "type": "transitionMetal",
    "boilingPoint": "unknown",
    "meltingPoint": "unknown",
    "row": 8,
    "column": 7,
    "group": 6,
    "period": 7
  },
  "bohrium": {
    "symbol": "Bh",
    "atomicNumber": 107,
    "atomicWeight": "[270]",
    "type": "transitionMetal",
    "boilingPoint": "unknown",
    "meltingPoint": "unknown",
    "row": 8,
    "column": 8,
    "group": 7,
    "period": 7
  },
  "hassium": {
    "symbol": "Hs",
    "atomicNumber": 108,
    "atomicWeight": "[270]",
    "type": "transitionMetal",
    "boilingPoint": "unknown",
    "meltingPoint": "unknown",
    "row": 8,
    "column": 9,
    "group": 8,
    "period": 7
  },
  "meitnerium": {
    "symbol": "Mt",
    "atomicNumber": 109,
    "atomicWeight": "[278]",
    "type": "noType",
    "boilingPoint": "unknown",
    "meltingPoint": "unknown",
    "row": 8,
    "column": 10,
    "group": 9,
    "period": 7
  },
  "darmstadtium": {
    "symbol": "Ds",
    "atomicNumber": 110,
    "atomicWeight": "[281]",
    "type": "noType",
    "boilingPoint": "unknown",
    "meltingPoint": "unknown",
    "row": 8,
    "column": 11,
    "group": 10,
    "period": 7
  },
  "roentgenium": {
    "symbol": "Rg",
    "atomicNumber": 111,
    "atomicWeight": "[282]",
    "type": "noType",
    "boilingPoint": "unknown",
    "meltingPoint": "unknown",
    "row": 8,
    "column": 12,
    "group": 11,
    "period": 7
  },
  "copernicium": {
    "symbol": "Cn",
    "atomicNumber": 112,
    "atomicWeight": "[285]",
    "type": "transitionMetal",
    "boilingPoint": "unknown",
    "meltingPoint": "unknown",
    "row": 8,
    "column": 13,
    "group": 12,
    "period": 7
  },
  "nihonium": {
    "symbol": "Nh",
    "atomicNumber": 113,
    "atomicWeight": "[286]",
    "type": "noType",
    "boilingPoint": "unknown",
    "meltingPoint": "unknown",
    "row": 8,
    "column": 14,
    "group": 13,
    "period": 7
  },
  "flerovium": {
    "symbol": "Fl",
    "atomicNumber": 114,
    "atomicWeight": "[289]",
    "type": "postTransitionMetal",
    "boilingPoint": "unknown",
    "meltingPoint": "unknown",
    "row": 8,
    "column": 15,
    "group": 14,
    "period": 7
  },
  "moscovium": {
    "symbol": "Mc",
    "atomicNumber": 115,
    "atomicWeight": "[290]",
    "type": "noType",
    "boilingPoint": "unknown",
    "meltingPoint": "unknown",
    "row": 8,
    "column": 16,
    "group": 15,
    "period": 7
  },
  "livermorium": {
    "symbol": "Lv",
    "atomicNumber": 116,
    "atomicWeight": "[293]",
    "type": "noType",
    "boilingPoint": "unknown",
    "meltingPoint": "unknown",
    "row": 8,
    "column": 17,
    "group": 16,
    "period": 7
  },
  "tennessine": {
    "symbol": "Ts",
    "atomicNumber": 117,
    "atomicWeight": "[294]",
    "type": "noType",
    "boilingPoint": "unknown",
    "meltingPoint": "unknown",
    "row": 8,
    "column": 18,
    "group": 17,
    "period": 7
  },
  "oganesson": {
    "symbol": "Og",
    "atomicNumber": 118,
    "atomicWeight": "[294]",
    "type": "noType",
    "boilingPoint": "unknown",
    "meltingPoint": "unknown",
    "row": 8,
    "column": 19,
    "group": 18,
    "period": 7
  }
}
